80
# CELL(abcABC):   13.18034    17.29206    24.21758    90.00000    66.14000    90.00000  Step:       20000  Bead:       0 positions{atomic_unit}  cell{atomic_unit}
       C  1.61146e+01  1.03305e+01  1.80947e+01
       H  1.52760e+01  1.22173e+01  1.80506e+01
       H  1.56828e+01  9.37114e+00  1.98479e+01
       H  1.81761e+01  1.05677e+01  1.79446e+01
       C  1.50540e+01  8.88037e+00  1.58926e+01
       O  1.27781e+01  8.80297e+00  1.55115e+01
       N  1.68761e+01  7.47577e+00  1.47029e+01
       H  1.86162e+01  7.49774e+00  1.55389e+01
       C  1.66442e+01  5.91780e+00  1.25641e+01
       C  1.45555e+01  5.94974e+00  1.09359e+01
       H  1.29621e+01  7.19448e+00  1.12801e+01
       C  1.45902e+01  4.46561e+00  8.74929e+00
       H  1.30043e+01  4.53847e+00  7.47084e+00
       C  1.87502e+01  4.43490e+00  1.19862e+01
       H  2.03584e+01  4.42532e+00  1.32304e+01
       C  1.87788e+01  2.92634e+00  9.81266e+00
       H  2.03877e+01  1.73531e+00  9.37596e+00
       C  1.67132e+01  3.01043e+00  8.20152e+00
       O  1.67200e+01  1.59798e+00  6.04065e+00
       H  1.84547e+01  8.96386e-01  5.82969e+00
       C  1.17861e+01  1.90363e+01  1.51501e+01
       H  9.72661e+00  1.91252e+01  1.51506e+01
       H  1.24142e+01  1.81940e+01  1.33718e+01
       H  1.25070e+01  2.09739e+01  1.52875e+01
       C  1.27833e+01  1.75510e+01  1.73488e+01
       O  1.50520e+01  1.74423e+01  1.77548e+01
       N  1.09512e+01  1.61729e+01  1.85206e+01
       H  9.20861e+00  1.62015e+01  1.76925e+01
       C  1.11875e+01  1.46634e+01  2.06955e+01
       C  9.06207e+00  1.32302e+01  2.13092e+01
       H  7.39813e+00  1.32699e+01  2.01056e+01
       C  9.03628e+00  1.17290e+01  2.34623e+01
       H  7.38141e+00  1.05976e+01  2.39152e+01
       C  1.33208e+01  1.45931e+01  2.22732e+01
       H  1.49682e+01  1.57508e+01  2.19085e+01
       C  1.32761e+01  1.30934e+01  2.44450e+01
       H  1.48923e+01  1.31172e+01  2.57151e+01
       C  1.11486e+01  1.16516e+01  2.50117e+01
       O  1.11097e+01  1.02397e+01  2.71743e+01
       H  9.35374e+00  9.66907e+00  2.74232e+01
       C  6.89939e+00  6.87543e+00  4.08017e+00
       H  7.50751e+00  7.75893e+00  2.33100e+00
       H  7.73697e+00  4.99522e+00  4.19178e+00
       H  4.83547e+00  6.69762e+00  4.11553e+00
       C  7.87943e+00  8.39519e+00  6.25296e+00
       O  1.01420e+01  8.55783e+00  6.67785e+00
       N  6.04619e+00  9.77255e+00  7.43717e+00
       H  4.29162e+00  9.74886e+00  6.64125e+00
       C  6.24694e+00  1.12745e+01  9.63329e+00
       C  4.12095e+00  1.27294e+01  1.02770e+01
       H  2.45391e+00  1.26808e+01  9.09920e+00
       C  4.15371e+00  1.42810e+01  1.24333e+01
       H  2.51931e+00  1.53890e+01  1.29369e+01
       C  8.37233e+00  1.13262e+01  1.12074e+01
       H  9.97169e+00  1.01134e+01  1.08258e+01
       C  8.39169e+00  1.28336e+01  1.33645e+01
       H  1.00075e+01  1.28173e+01  1.46159e+01
       C  6.29982e+00  1.43124e+01  1.39287e+01
       O  6.29701e+00  1.57045e+01  1.61127e+01
       H  4.55863e+00  1.63406e+01  1.63788e+01
       C  1.12115e+01 -1.61655e+00  7.01090e+00
       H  1.08940e+01 -5.17104e-01  8.72366e+00
       H  1.32284e+01 -2.01495e+00  6.79969e+00
       H  1.01919e+01 -3.39736e+00  7.13707e+00
       C  1.01808e+01 -1.96407e-01  4.81493e+00
       O  7.91146e+00 -1.34514e-01  4.40092e+00
       N  1.20166e+01  1.20617e+00  3.61626e+00
       H  1.37541e+01  1.19823e+00  4.45060e+00
       C  1.18025e+01  2.64016e+00  1.39543e+00
       C  1.39052e+01  4.11860e+00  7.88709e-01
       H  1.55729e+01  4.02465e+00  1.98188e+00
       C  1.39157e+01  5.62348e+00 -1.39624e+00
       H  1.55653e+01  6.75590e+00 -1.85678e+00
       C  9.68620e+00  2.61315e+00 -1.96405e-01
       H  8.04596e+00  1.43572e+00  1.78485e-01
       C  9.68720e+00  4.12366e+00 -2.36420e+00
       H  8.07917e+00  4.04523e+00 -3.63143e+00
       C  1.17828e+01  5.62143e+00 -2.92230e+00
       O  1.17645e+01  7.01446e+00 -5.10577e+00
       H  1.35098e+01  7.69028e+00 -5.35232e+00
