80
# CELL(abcABC):   13.18034    17.29206    24.21758    90.00000    66.14000    90.00000  Step:          86  Bead:       0 positions{atomic_unit}  cell{atomic_unit}
       C  1.60246e+01  1.03243e+01  1.80181e+01
       H  1.51437e+01  1.21883e+01  1.79958e+01
       H  1.55562e+01  9.33545e+00  1.97696e+01
       H  1.80725e+01  1.05762e+01  1.79067e+01
       C  1.50308e+01  8.84838e+00  1.58150e+01
       O  1.27648e+01  8.72964e+00  1.53958e+01
       N  1.68753e+01  7.47640e+00  1.46243e+01
       H  1.86203e+01  7.49958e+00  1.54506e+01
       C  1.66624e+01  5.96074e+00  1.24547e+01
       C  1.45323e+01  5.90032e+00  1.08769e+01
       H  1.28971e+01  7.06144e+00  1.12778e+01
       C  1.45344e+01  4.37693e+00  8.71621e+00
       H  1.29152e+01  4.37274e+00  7.46308e+00
       C  1.87867e+01  4.50938e+00  1.18436e+01
       H  2.04493e+01  4.57372e+00  1.30370e+01
       C  1.87912e+01  2.96872e+00  9.69538e+00
       H  2.04316e+01  1.83452e+00  9.24058e+00
       C  1.66594e+01  2.92793e+00  8.16143e+00
       O  1.66499e+01  1.47914e+00  6.01182e+00
       H  1.84000e+01  8.75168e-01  5.72291e+00
       C  1.18399e+01  1.89803e+01  1.52006e+01
       H  9.78622e+00  1.91902e+01  1.52923e+01
       H  1.23461e+01  1.80172e+01  1.34450e+01
       H  1.26828e+01  2.08614e+01  1.52473e+01
       C  1.28389e+01  1.75039e+01  1.74021e+01
       O  1.51038e+01  1.73884e+01  1.78228e+01
       N  1.09945e+01  1.61340e+01  1.85960e+01
       H  9.24862e+00  1.61578e+01  1.77723e+01
       C  1.12076e+01  1.46201e+01  2.07668e+01
       C  9.07825e+00  1.31781e+01  2.13809e+01
       H  7.41331e+00  1.32509e+01  2.01917e+01
       C  9.07082e+00  1.16349e+01  2.35261e+01
       H  7.42618e+00  1.05080e+01  2.39823e+01
       C  1.33409e+01  1.45482e+01  2.23406e+01
       H  1.49822e+01  1.57005e+01  2.19386e+01
       C  1.33358e+01  1.30214e+01  2.44990e+01
       H  1.49575e+01  1.30090e+01  2.57489e+01
       C  1.12050e+01  1.15812e+01  2.50551e+01
       O  1.12080e+01  1.01283e+01  2.72012e+01
       H  9.45451e+00  9.53553e+00  2.74916e+01
       C  6.93460e+00  6.95870e+00  4.12132e+00
       H  7.41288e+00  7.94069e+00  2.36829e+00
       H  7.80760e+00  5.09124e+00  4.15021e+00
       H  4.88560e+00  6.71444e+00  4.22676e+00
       C  7.92863e+00  8.43394e+00  6.32477e+00
       O  1.01949e+01  8.55005e+00  6.74271e+00
       N  6.08389e+00  9.80156e+00  7.52087e+00
       H  4.33647e+00  9.77468e+00  6.69975e+00
       C  6.29991e+00  1.13139e+01  9.69317e+00
       C  4.17097e+00  1.27524e+01  1.03173e+01
       H  2.50223e+00  1.26787e+01  9.13333e+00
       C  4.16874e+00  1.42895e+01  1.24676e+01
       H  2.52305e+00  1.54108e+01  1.29342e+01
       C  8.43718e+00  1.13842e+01  1.12616e+01
       H  1.00775e+01  1.02333e+01  1.08531e+01
       C  8.43814e+00  1.29055e+01  1.34236e+01
       H  1.00630e+01  1.29158e+01  1.46692e+01
       C  6.30789e+00  1.43416e+01  1.39903e+01
       O  6.31637e+00  1.57865e+01  1.61417e+01
       H  4.56378e+00  1.63802e+01  1.64350e+01
       C  1.11356e+01 -1.68882e+00  6.93585e+00
       H  1.07035e+01 -6.78348e-01  8.68462e+00
       H  1.31785e+01 -1.96714e+00  6.79503e+00
       H  1.02322e+01 -3.54215e+00  6.94115e+00
       C  1.01320e+01 -2.18115e-01  4.73433e+00
       O  7.86597e+00 -1.07856e-01  4.31773e+00
       N  1.19717e+01  1.16435e+00  3.54778e+00
       H  1.37183e+01  1.13773e+00  4.36990e+00
       C  1.17531e+01  2.68327e+00  1.38108e+00
       C  1.38774e+01  4.13293e+00  7.67148e-01
       H  1.55422e+01  4.06727e+00  1.95724e+00
       C  1.38807e+01  5.67133e+00 -1.38191e+00
       H  1.55211e+01  6.80343e+00 -1.84176e+00
       C  9.61890e+00  2.74876e+00 -1.90962e-01
       H  7.98035e+00  1.59412e+00  2.15324e-01
       C  9.61868e+00  4.27022e+00 -2.35324e+00
       H  7.99534e+00  4.27612e+00 -3.60177e+00
       C  1.17480e+01  5.71150e+00 -2.91347e+00
       O  1.17476e+01  7.15163e+00 -5.06749e+00
       H  1.35020e+01  7.74056e+00 -5.35944e+00
